 CRYSTAL
 PRIMVEC
    2.465488561      0.000000000      0.000000000
   -1.232744280      2.135175726      0.000000000
    0.000000000      0.000000000     10.000000001
 PRIMCOORD
  2 1
    6    0.000000000      0.000000000      0.000000000
    6   -0.000000000      1.423450484      0.000000000
