 CRYSTAL
 PRIMVEC
    5.291770000      0.000000000      0.000000000
    0.000000000      5.291770000      0.000000000
    0.000000000      0.000000000      5.291770000
 PRIMCOORD
  2 1
    1   -0.370000558      0.000000000      0.000000000
    1    0.370000558      0.000000000      0.000000000
