 ATOMS     9
    6    0.667169083     -0.000000471      0.000000032     -0.000014528     -0.000001282     -0.123606358
    1    1.237180956      0.928811352      0.000000019     -0.000224143      0.000163082      0.396940807
    1    1.237180732     -0.928810720      0.000000020      0.000179560      0.000097624      0.396111660
    6   -0.667168372     -0.000000038      0.000000027     -0.000015941     -0.000009804      0.123554117
    1   -1.237180772      0.928811122      0.000000034     -0.000047979     -0.000064332     -0.396465096
    1   -1.237180627     -0.928810964      0.000000036      0.000059830     -0.000026912     -0.395638197
