 ATOMS     4
    6    0.667169083     -0.000000471      0.000000032     -0.186261673      0.026480472     -0.018358932
    1    1.237180956      0.928811352      0.000000019     -0.188598963      0.027877189     -0.038328189
    1    1.237180732     -0.928810720      0.000000020     -0.184044018      0.027954698     -0.002208073
    6   -0.667168372     -0.000000038      0.000000027     -0.186282208      0.023242482     -0.014576309
    1   -1.237180772      0.928811122      0.000000034     -0.188465302      0.022007287     -0.031289745
    1   -1.237180627     -0.928810964      0.000000036     -0.184153715      0.021961950      0.004990402
