 ATOMS     6
    6    0.667169083     -0.000000471      0.000000032      0.002301989     -0.000920456     -0.163266400
    1    1.237180956      0.928811352      0.000000019      0.003423730     -0.001613310     -0.303275632
    1    1.237180732     -0.928810720      0.000000020      0.001229090     -0.001564996     -0.301832526
    6   -0.667168372     -0.000000038      0.000000027      0.002296573      0.000547635      0.161401226
    1   -1.237180772      0.928811122      0.000000034      0.003292834      0.001184279      0.300071399
    1   -1.237180627     -0.928810964      0.000000036      0.001159516      0.001213444      0.301313231
