 ATOMS    18
    6    0.667169083     -0.000000471      0.000000032     -0.000095559      0.066975568      0.000001872
    1    1.237180956      0.928811352      0.000000019     -0.248281876     -0.397813141      0.000016494
    1    1.237180732     -0.928810720      0.000000020      0.249183951     -0.399475166      0.000021074
    6   -0.667168372     -0.000000038      0.000000027     -0.000088731      0.067108485      0.000003313
    1   -1.237180772      0.928811122      0.000000034      0.249806962     -0.400411210      0.000016111
    1   -1.237180627     -0.928810964      0.000000036     -0.248753471     -0.398569089      0.000020057
