 CRYSTAL
 PRIMVEC
    3.175062000      0.000000000      0.000000000
    0.000000000      2.116708000      0.000000000
    0.000000000      0.000000000      2.116708000
 PRIMCOORD
  2 1
    6    0.000000000      0.000000000      0.000000000
    8    1.164189400      0.000000000      0.000000000
