ATOMS
    6    0.000000000      1.402720000      0.000000000
    1    0.000000000      2.490290000      0.000000000
    6   -1.214790000      0.701360000      0.000000000
    1   -2.156660000      1.245150000      0.000000000
    6   -1.214790000     -0.701360000      0.000000000
    1   -2.156660000     -1.245150000      0.000000000
    6    0.000000000     -1.402720000      0.000000000
    1    0.000000000     -2.490290000      0.000000000
    6    1.214790000     -0.701360000      0.000000000
    1    2.156660000     -1.245150000      0.000000000
    6    1.214790000      0.701360000      0.000000000
    1    2.156660000      1.245150000      0.000000000
