ATOMS
    6    0.668203960      0.000000000      0.000000000
    1    1.242681614      0.927889998      0.000000000
    1    1.242681614     -0.927889998      0.000000000
    6   -0.668203960      0.000000000      0.000000000
    1   -1.242681614      0.927889998      0.000000000
    1   -1.242681614     -0.927889998      0.000000000
