 ATOMS    12
    6    0.667169083     -0.000000471      0.000000032      0.086610259      0.000021775      0.000003654
    1    1.237180956      0.928811352      0.000000019      0.414913306     -0.179385193      0.000203877
    1    1.237180732     -0.928810720      0.000000020      0.414462133      0.179193845      0.000138646
    6   -0.667168372     -0.000000038      0.000000027     -0.086890278      0.000026581     -0.000023464
    1   -1.237180772      0.928811122      0.000000034     -0.412807942     -0.178108480      0.000153170
    1   -1.237180627     -0.928810964      0.000000036     -0.413138221      0.178227440      0.000020496
