 ATOMS    11
    6    0.667169083     -0.000000471      0.000000032      0.000040696     -0.124340754     -0.000064286
    1    1.237180956      0.928811352      0.000000019     -0.377804444      0.114249519     -0.000247701
    1    1.237180732     -0.928810720      0.000000020      0.378051617      0.114341797     -0.000468395
    6   -0.667168372     -0.000000038      0.000000027     -0.000069756      0.124300804     -0.000087686
    1   -1.237180772      0.928811122      0.000000034     -0.378152810     -0.114426790     -0.000234286
    1   -1.237180627     -0.928810964      0.000000036      0.377926618     -0.114442563     -0.000011238
