 ATOMS    13
    6    0.667169083     -0.000000471      0.000000032     -0.065467993      0.000029812      0.000015012
    1    1.237180956      0.928811352      0.000000019      0.388744763     -0.265138261     -0.000053139
    1    1.237180732     -0.928810720      0.000000020      0.388806880      0.265180385     -0.000008100
    6   -0.667168372     -0.000000038      0.000000027     -0.065375553      0.000004809      0.000029549
    1   -1.237180772      0.928811122      0.000000034      0.390805301      0.266374868      0.000004015
    1   -1.237180627     -0.928810964      0.000000036      0.390694266     -0.266303083     -0.000052485
