 ATOMS    17
    6    0.667169083     -0.000000471      0.000000032      0.000092427     -0.065797093      0.000009668
    1    1.237180956      0.928811352      0.000000019      0.249519024      0.399419962      0.000014082
    1    1.237180732     -0.928810720      0.000000020     -0.250590013      0.401190680      0.000015124
    6   -0.667168372     -0.000000038      0.000000027     -0.000121766      0.065660169      0.000007811
    1   -1.237180772      0.928811122      0.000000034      0.250224340     -0.400552748      0.000020245
    1   -1.237180627     -0.928810964      0.000000036     -0.248854953     -0.398330975      0.000018019
