 ATOMS     3
    6    0.667169083     -0.000000471      0.000000032      0.017848053      0.004699781     -0.177820757
    1    1.237180956      0.928811352      0.000000019      0.009634143      0.009717834     -0.327942676
    1    1.237180732     -0.928810720      0.000000020      0.026172036      0.009790949     -0.031087115
    6   -0.667168372     -0.000000038      0.000000027      0.017821996     -0.007343571     -0.179767349
    1   -1.237180772      0.928811122      0.000000034      0.009828789     -0.012275114     -0.331690289
    1   -1.237180627     -0.928810964      0.000000036      0.025857746     -0.012277146     -0.034723479
