 ATOMS    14
    6    0.667169083     -0.000000471      0.000000032      0.177048500      0.000003093     -0.000005087
    1    1.237180956      0.928811352      0.000000019     -0.130166564      0.211189972      0.000017044
    1    1.237180732     -0.928810720      0.000000020     -0.130326069     -0.211232106      0.000120483
    6   -0.667168372     -0.000000038      0.000000027     -0.176922111      0.000011306      0.000000666
    1   -1.237180772      0.928811122      0.000000034      0.129733408      0.210825742      0.000054655
    1   -1.237180627     -0.928810964      0.000000036      0.129477782     -0.210776715      0.000145280
