 ATOMS     5
    6    0.667169083     -0.000000471      0.000000032     -0.024859082     -0.185920907     -0.000939523
    1    1.237180956      0.928811352      0.000000019     -0.026818556     -0.184962831     -0.002733383
    1    1.237180732     -0.928810720      0.000000020     -0.022845848     -0.184784025      0.000759942
    6   -0.667168372     -0.000000038      0.000000027     -0.024889188     -0.188387112     -0.000735456
    1   -1.237180772      0.928811122      0.000000034     -0.026200936     -0.189274639     -0.002360766
    1   -1.237180627     -0.928810964      0.000000036     -0.023621483     -0.189438917      0.001156959
