 ATOMS    10
    6    0.667169083     -0.000000471      0.000000032     -0.000017742     -0.000022328     -0.000088912
    1    1.237180956      0.928811352      0.000000019     -0.000135640      0.000085720     -0.497744862
    1    1.237180732     -0.928810720      0.000000020      0.000070659     -0.000002147      0.498320457
    6   -0.667168372     -0.000000038      0.000000027     -0.000009559      0.000019939      0.000084019
    1   -1.237180772      0.928811122      0.000000034     -0.000090939     -0.000065793      0.497608710
    1   -1.237180627     -0.928810964      0.000000036      0.000077579      0.000002102     -0.498471705
