 ATOMS    15
    6    0.667169083     -0.000000471      0.000000032     -0.041000092     -0.000135612      0.000003561
    1    1.237180956      0.928811352      0.000000019      0.244995357      0.419601162     -0.000019598
    1    1.237180732     -0.928810720      0.000000020      0.244046251     -0.418266509     -0.000063166
    6   -0.667168372     -0.000000038      0.000000027     -0.041586142     -0.000180426      0.000001559
    1   -1.237180772      0.928811122      0.000000034      0.246596118     -0.422596098     -0.000019791
    1   -1.237180627     -0.928810964      0.000000036      0.247915255      0.424344820      0.000056592
