 ATOMS     8
    6    0.667169083     -0.000000471      0.000000032     -0.000058584     -0.000086415     -0.078260033
    1    1.237180956      0.928811352      0.000000019     -0.000709442      0.000344121      0.459865237
    1    1.237180732     -0.928810720      0.000000020      0.000627581      0.000337505      0.459518162
    6   -0.667168372     -0.000000038      0.000000027      0.000044123      0.000017298     -0.078390193
    1   -1.237180772      0.928811122      0.000000034      0.000599991      0.000369848      0.460364278
    1   -1.237180627     -0.928810964      0.000000036     -0.000348919      0.000309458      0.459760392
