 ATOMS     1
    6    0.667169083     -0.000000471      0.000000032      0.001602734      0.148974355      0.007774655
    1    1.237180956      0.928811352      0.000000019     -0.205030344      0.275020144      0.003308579
    1    1.237180732     -0.928810720      0.000000020      0.208299274      0.275047400      0.010939540
    6   -0.667168372     -0.000000038      0.000000027      0.001519218     -0.146341114      0.009396999
    1   -1.237180772      0.928811122      0.000000034     -0.205061513     -0.272284667      0.006560757
    1   -1.237180627     -0.928810964      0.000000036      0.207935594     -0.272294334      0.014269902
