 ATOMS     7
    6    0.667169083     -0.000000471      0.000000032      0.000048738     -0.038606133      0.000190475
    1    1.237180956      0.928811352      0.000000019     -0.431246014      0.230532767     -0.000717534
    1    1.237180732     -0.928810720      0.000000020      0.431415327      0.230437291     -0.000532519
    6   -0.667168372     -0.000000038      0.000000027      0.000045008     -0.038507438      0.000158512
    1   -1.237180772      0.928811122      0.000000034      0.431307493      0.230485612     -0.000583064
    1   -1.237180627     -0.928810964      0.000000036     -0.431303644      0.230688727     -0.000353897
