 ATOMS     2
    6    0.667169083     -0.000000471      0.000000032      0.001588936     -0.002984937      0.056403576
    1    1.237180956      0.928811352      0.000000019      0.006061114     -0.005754991     -0.417568379
    1    1.237180732     -0.928810720      0.000000020     -0.002820059     -0.005637699      0.532524479
    6   -0.667168372     -0.000000038      0.000000027      0.001610994      0.003293143      0.056395408
    1   -1.237180772      0.928811122      0.000000034      0.005717928      0.005790393     -0.417538367
    1   -1.237180627     -0.928810964      0.000000036     -0.002607803      0.005900996      0.532497217
