 ATOMS    16
    6    0.667169083     -0.000000471      0.000000032     -0.052954357     -0.000152270      0.000001669
    1    1.237180956      0.928811352      0.000000019      0.246656213      0.417460854     -0.000026501
    1    1.237180732     -0.928810720      0.000000020      0.245481232     -0.415628846      0.000024682
    6   -0.667168372     -0.000000038      0.000000027      0.052497661      0.000170880     -0.000001991
    1   -1.237180772      0.928811122      0.000000034     -0.242784922      0.410884568     -0.000037958
    1   -1.237180627     -0.928810964      0.000000036     -0.244063831     -0.412848893      0.000015456
